    1C
    1UFEA case 0002                                                     
    1UUSER                                                              
    1UDATE              20.may.2026                                     
    1UTIME              10:20:08                                        
    1UHOST                                                              
    1UPGM               CalculiX                                        
    1UVERSION           Version 2.21                             
    1UCOMPILETIME       Sat Jul 29 10:52:01 CEST 2023                    
    1UDIR                                                               
    1UDBN                                                               
    1UMAT    1GI                                                        
    2C                         11724                                     1
 -1      2913 2.40000E+01-4.13126E+02 2.37908E+01
 -1      2915 2.50000E+01-4.13126E+02 2.37908E+01
 -1      2916 2.45000E+01-4.13463E+02 2.41601E+01
 -1      2918 2.45000E+01-4.12789E+02 2.34214E+01
 -1      2927 2.40000E+01-4.22500E+02 3.30000E+01
 -1      2929 2.50000E+01-4.22500E+02 3.30000E+01
 -1      2930 2.45000E+01-4.22000E+02 3.30000E+01
 -1      2932 2.45000E+01-4.23000E+02 3.30000E+01
 -1      2933 2.45000E+01-4.22500E+02 3.25000E+01
 -1      2935 2.45000E+01-4.22500E+02 3.35000E+01
 -1      2947 2.40000E+01-4.13237E+02 2.36820E+01
 -1      2949 2.50000E+01-4.13237E+02 2.36820E+01
 -1      2950 2.45000E+01-4.13592E+02 2.40341E+01
 -1      2952 2.45000E+01-4.12882E+02 2.33299E+01
 -1      2961 2.40000E+01-4.13343E+02 2.35678E+01
 -1      2963 2.50000E+01-4.13343E+02 2.35678E+01
 -1      2964 2.45000E+01-4.13715E+02 2.39017E+01
 -1      2966 2.45000E+01-4.12971E+02 2.32338E+01
 -1      2975 2.40000E+01-4.13009E+02 2.38939E+01
 -1      2977 2.50000E+01-4.13009E+02 2.38939E+01
 -1      2978 2.45000E+01-4.13327E+02 2.42796E+01
 -1      2980 2.45000E+01-4.12690E+02 2.35082E+01
 -1      2989 2.40000E+01-4.13443E+02 2.34484E+01
 -1      2991 2.50000E+01-4.13443E+02 2.34484E+01
 -1      2992 2.45000E+01-4.13832E+02 2.37634E+01
 -1      2994 2.45000E+01-4.13055E+02 2.31334E+01
 -1      3003 2.40000E+01-4.12887E+02 2.39910E+01
 -1      3005 2.50000E+01-4.12887E+02 2.39910E+01
 -1      3006 2.45000E+01-4.13185E+02 2.43921E+01
 -1      3008 2.45000E+01-4.12588E+02 2.35900E+01
 -1      3017 2.40000E+01-4.13537E+02 2.33242E+01
 -1      3019 2.50000E+01-4.13537E+02 2.33242E+01
 -1      3020 2.45000E+01-4.13941E+02 2.36194E+01
 -1      3022 2.45000E+01-4.13134E+02 2.30290E+01
 -1      3031 2.40000E+01-4.12760E+02 2.40820E+01
 -1      3033 2.50000E+01-4.12760E+02 2.40820E+01
 -1      3034 2.45000E+01-4.13039E+02 2.44974E+01
 -1      3036 2.45000E+01-4.12482E+02 2.36665E+01
 -1      3045 2.40000E+01-4.13625E+02 2.31955E+01
 -1      3047 2.50000E+01-4.13625E+02 2.31955E+01
 -1      3048 2.45000E+01-4.14045E+02 2.34667E+01
 -1      3050 2.45000E+01-4.13205E+02 2.29242E+01
 -1      3059 2.40000E+01-4.12629E+02 2.41665E+01
 -1      3061 2.50000E+01-4.12629E+02 2.41665E+01
 -1      3062 2.45000E+01-4.12887E+02 2.45953E+01
 -1      3064 2.45000E+01-4.12372E+02 2.37377E+01
 -1      3073 2.40000E+01-4.13706E+02 2.30625E+01
 -1      3075 2.50000E+01-4.13706E+02 2.30625E+01
 -1      3076 2.45000E+01-4.14139E+02 2.33125E+01
 -1      3078 2.45000E+01-4.13273E+02 2.28125E+01
 -1      3087 2.40000E+01-4.12495E+02 2.42444E+01
 -1      3089 2.50000E+01-4.12495E+02 2.42444E+01
 -1      3090 2.45000E+01-4.12730E+02 2.46855E+01
 -1      3092 2.45000E+01-4.12259E+02 2.38034E+01
 -1      3101 2.40000E+01-4.13781E+02 2.29257E+01
 -1      3103 2.50000E+01-4.13781E+02 2.29257E+01
 -1      3104 2.45000E+01-4.14226E+02 2.31538E+01
 -1      3106 2.45000E+01-4.13336E+02 2.26976E+01
 -1      3115 2.40000E+01-4.12356E+02 2.43155E+01
 -1      3117 2.50000E+01-4.12356E+02 2.43155E+01
 -1      3118 2.45000E+01-4.12573E+02 2.47660E+01
 -1      3120 2.45000E+01-4.12139E+02 2.38650E+01
 -1      3129 2.40000E+01-4.13848E+02 2.27853E+01
 -1      3131 2.50000E+01-4.13848E+02 2.27853E+01
 -1      3132 2.45000E+01-4.14304E+02 2.29909E+01
 -1      3134 2.45000E+01-4.13393E+02 2.25797E+01
 -1      3143 2.40000E+01-4.12214E+02 2.43796E+01
 -1      3145 2.50000E+01-4.12214E+02 2.43796E+01
 -1      3146 2.45000E+01-4.12408E+02 2.48404E+01
 -1      3148 2.45000E+01-4.12020E+02 2.39189E+01
 -1      3157 2.40000E+01-4.13909E+02 2.26417E+01
 -1      3159 2.50000E+01-4.13909E+02 2.26417E+01
 -1      3160 2.45000E+01-4.14374E+02 2.28244E+01
 -1      3162 2.45000E+01-4.13444E+02 2.24590E+01
 -1      3171 2.40000E+01-4.12069E+02 2.44365E+01
 -1      3173 2.50000E+01-4.12069E+02 2.44365E+01
 -1      3174 2.45000E+01-4.12236E+02 2.49078E+01
 -1      3176 2.45000E+01-4.11902E+02 2.39653E+01
 -1      3185 2.40000E+01-4.13962E+02 2.24953E+01
 -1      3187 2.50000E+01-4.13962E+02 2.24953E+01
 -1      3188 2.45000E+01-4.14436E+02 2.26545E+01
 -1      3190 2.45000E+01-4.13488E+02 2.23360E+01
 -1      3199 2.40000E+01-4.11921E+02 2.44862E+01
 -1      3201 2.50000E+01-4.11921E+02 2.44862E+01
 -1      3202 2.45000E+01-4.12068E+02 2.49640E+01
 -1      3204 2.45000E+01-4.11774E+02 2.40084E+01
 -1      3213 2.40000E+01-4.14008E+02 2.23464E+01
 -1      3215 2.50000E+01-4.14008E+02 2.23464E+01
 -1      3216 2.45000E+01-4.14488E+02 2.24858E+01
 -1      3218 2.45000E+01-4.13528E+02 2.22070E+01
 -1      3227 2.40000E+01-4.11771E+02 2.45284E+01
 -1      3229 2.50000E+01-4.11771E+02 2.45284E+01
 -1      3230 2.45000E+01-4.11899E+02 2.50119E+01
 -1      3232 2.45000E+01-4.11644E+02 2.40449E+01
 -1      3241 2.40000E+01-4.14047E+02 2.21954E+01
 -1      3243 2.50000E+01-4.14047E+02 2.21954E+01
 -1      3244 2.45000E+01-4.14534E+02 2.23066E+01
 -1      3246 2.45000E+01-4.13559E+02 2.20841E+01
 -1      3255 2.40000E+01-4.11619E+02 2.45630E+01
 -1      3257 2.50000E+01-4.11619E+02 2.45630E+01
 -1      3258 2.45000E+01-4.11718E+02 2.50531E+01
 -1      3260 2.45000E+01-4.11520E+02 2.40730E+01
 -1      3269 2.40000E+01-4.14078E+02 2.20427E+01
 -1      3271 2.50000E+01-4.14078E+02 2.20427E+01
 -1      3272 2.45000E+01-4.14571E+02 2.21254E+01
 -1      3274 2.45000E+01-4.13584E+02 2.19599E+01
 -1      3283 2.40000E+01-4.11466E+02 2.45901E+01
 -1      3285 2.50000E+01-4.11466E+02 2.45901E+01
 -1      3286 2.45000E+01-4.11540E+02 2.50845E+01
 -1      3288 2.45000E+01-4.11391E+02 2.40957E+01
 -1      3297 2.40000E+01-4.14101E+02 2.18886E+01
 -1      3299 2.50000E+01-4.14101E+02 2.18886E+01
 -1      3300 2.45000E+01-4.14597E+02 2.19508E+01
 -1      3302 2.45000E+01-4.13605E+02 2.18264E+01
 -1      3311 2.40000E+01-4.11311E+02 2.46095E+01
 -1      3313 2.50000E+01-4.11311E+02 2.46095E+01
 -1      3314 2.45000E+01-4.11361E+02 2.51070E+01
 -1      3316 2.45000E+01-4.11261E+02 2.41120E+01
 -1      3325 2.40000E+01-4.14116E+02 2.17335E+01
 -1      3327 2.50000E+01-4.14116E+02 2.17335E+01
 -1      3328 2.45000E+01-4.14615E+02 2.17709E+01
 -1      3330 2.45000E+01-4.13618E+02 2.16962E+01
 -1      3339 2.40000E+01-4.11156E+02 2.46211E+01
 -1      3341 2.50000E+01-4.11156E+02 2.46211E+01
 -1      3342 2.45000E+01-4.11177E+02 2.51207E+01
 -1      3344 2.45000E+01-4.11135E+02 2.41215E+01
 -1      3353 2.40000E+01-4.14124E+02 2.15779E+01
 -1      3355 2.50000E+01-4.14124E+02 2.15779E+01
 -1      3356 2.45000E+01-4.14624E+02 2.15903E+01
 -1      3358 2.45000E+01-4.13624E+02 2.15655E+01
 -1      3367 2.40000E+01-4.11000E+02 2.46250E+01
 -1      3369 2.50000E+01-4.11000E+02 2.46250E+01
 -1      3370 2.45000E+01-4.10996E+02 2.51250E+01
 -1      3372 2.45000E+01-4.11004E+02 2.41250E+01
 -1      3381 2.40000E+01-4.10844E+02 2.46211E+01
 -1      3383 2.50000E+01-4.10844E+02 2.46211E+01
 -1      3384 2.45000E+01-4.10815E+02 2.51203E+01
 -1      3386 2.45000E+01-4.10873E+02 2.41220E+01
 -1      3395 2.40000E+01-4.10689E+02 2.46095E+01
 -1      3397 2.50000E+01-4.10689E+02 2.46095E+01
 -1      3398 2.45000E+01-4.10635E+02 2.51066E+01
 -1      3400 2.45000E+01-4.10743E+02 2.41124E+01
 -1      3409 2.40000E+01-4.10534E+02 2.45901E+01
 -1      3411 2.50000E+01-4.10534E+02 2.45901E+01
 -1      3412 2.45000E+01-4.10456E+02 2.50839E+01
 -1      3414 2.45000E+01-4.10613E+02 2.40963E+01
 -1      3423 2.40000E+01-4.10381E+02 2.45630E+01
 -1      3425 2.50000E+01-4.10381E+02 2.45630E+01
 -1      3426 2.45000E+01-4.10278E+02 2.50523E+01
 -1      3428 2.45000E+01-4.10484E+02 2.40738E+01
 -1      3437 2.40000E+01-4.10229E+02 2.45284E+01
 -1      3439 2.50000E+01-4.10229E+02 2.45284E+01
 -1      3440 2.45000E+01-4.10101E+02 2.50119E+01
 -1      3442 2.45000E+01-4.10356E+02 2.40449E+01
 -1      3451 2.40000E+01-4.10079E+02 2.44862E+01
 -1      3453 2.50000E+01-4.10079E+02 2.44862E+01
 -1      3454 2.45000E+01-4.09928E+02 2.49627E+01
 -1      3456 2.45000E+01-4.10230E+02 2.40096E+01
 -1      3465 2.40000E+01-4.09931E+02 2.44365E+01
 -1      3467 2.50000E+01-4.09931E+02 2.44365E+01
 -1      3468 2.45000E+01-4.09756E+02 2.49049E+01
 -1      3470 2.45000E+01-4.10106E+02 2.39681E+01
 -1      3479 2.40000E+01-4.09786E+02 2.43796E+01
 -1      3481 2.50000E+01-4.09786E+02 2.43796E+01
 -1      3482 2.45000E+01-4.09588E+02 2.48387E+01
 -1      3484 2.45000E+01-4.09984E+02 2.39205E+01
 -1      3493 2.40000E+01-4.09644E+02 2.43155E+01
 -1      3495 2.50000E+01-4.09644E+02 2.43155E+01
 -1      3496 2.45000E+01-4.09423E+02 2.47642E+01
 -1      3498 2.45000E+01-4.09865E+02 2.38669E+01
 -1      3507 2.40000E+01-4.09505E+02 2.42444E+01
 -1      3509 2.50000E+01-4.09505E+02 2.42444E+01
 -1      3510 2.45000E+01-4.09263E+02 2.46816E+01
 -1      3512 2.45000E+01-4.09748E+02 2.38073E+01
 -1      3521 2.40000E+01-4.09371E+02 2.41665E+01
 -1      3523 2.50000E+01-4.09371E+02 2.41665E+01
 -1      3524 2.45000E+01-4.09106E+02 2.45910E+01
 -1      3526 2.45000E+01-4.09635E+02 2.37421E+01
 -1      3535 2.40000E+01-4.09240E+02 2.40820E+01
 -1      3537 2.50000E+01-4.09240E+02 2.40820E+01
 -1      3538 2.45000E+01-4.08955E+02 2.44928E+01
 -1      3540 2.45000E+01-4.09525E+02 2.36712E+01
 -1      3549 2.40000E+01-4.22500E+02 1.00000E+01
 -1      3551 2.50000E+01-4.22500E+02 1.00000E+01
 -1      3552 2.45000E+01-4.22500E+02 9.50000E+00
 -1      3554 2.45000E+01-4.22500E+02 1.05000E+01
 -1      3555 2.45000E+01-4.22000E+02 1.00000E+01
 -1      3557 2.45000E+01-4.23000E+02 1.00000E+01
 -1      3569 2.40000E+01-4.14124E+02 2.14221E+01
 -1      3571 2.50000E+01-4.14124E+02 2.14221E+01
 -1      3572 2.45000E+01-4.14624E+02 2.14097E+01
 -1      3574 2.45000E+01-4.13624E+02 2.14345E+01
 -1      3583 2.40000E+01-4.14116E+02 2.12665E+01
 -1      3585 2.50000E+01-4.14116E+02 2.12665E+01
 -1      3586 2.45000E+01-4.14615E+02 2.12291E+01
 -1      3588 2.45000E+01-4.13618E+02 2.13038E+01
 -1      3597 2.40000E+01-4.14101E+02 2.11114E+01
 -1      3599 2.50000E+01-4.14101E+02 2.11114E+01
 -1      3600 2.45000E+01-4.14597E+02 2.10492E+01
 -1      3602 2.45000E+01-4.13605E+02 2.11736E+01
 -1      3611 2.40000E+01-4.14078E+02 2.09573E+01
 -1      3613 2.50000E+01-4.14078E+02 2.09573E+01
 -1      3614 2.45000E+01-4.14570E+02 2.08706E+01
 -1      3616 2.45000E+01-4.13585E+02 2.10441E+01
 -1      3625 2.40000E+01-4.14047E+02 2.08046E+01
 -1      3627 2.50000E+01-4.14047E+02 2.08046E+01
 -1      3628 2.45000E+01-4.14535E+02 2.06975E+01
 -1      3630 2.45000E+01-4.13558E+02 2.09118E+01
 -1      3639 2.40000E+01-4.14008E+02 2.06536E+01
 -1      3641 2.50000E+01-4.14008E+02 2.06536E+01
 -1      3642 2.45000E+01-4.14491E+02 2.05222E+01
 -1      3644 2.45000E+01-4.13526E+02 2.07850E+01
 -1      3653 2.40000E+01-4.13962E+02 2.05047E+01
 -1      3655 2.50000E+01-4.13962E+02 2.05047E+01
 -1      3656 2.45000E+01-4.14438E+02 2.03494E+01
 -1      3658 2.45000E+01-4.13487E+02 2.06600E+01
 -1      3667 2.40000E+01-4.13909E+02 2.03583E+01
 -1      3669 2.50000E+01-4.13909E+02 2.03583E+01
 -1      3670 2.45000E+01-4.14376E+02 2.01795E+01
 -1      3672 2.45000E+01-4.13442E+02 2.05371E+01
 -1      3681 2.40000E+01-4.13848E+02 2.02147E+01
 -1      3683 2.50000E+01-4.13848E+02 2.02147E+01
 -1      3684 2.45000E+01-4.14304E+02 2.00091E+01
 -1      3686 2.45000E+01-4.13393E+02 2.04203E+01
 -1      3695 2.40000E+01-4.13781E+02 2.00743E+01
 -1      3697 2.50000E+01-4.13781E+02 2.00743E+01
 -1      3698 2.45000E+01-4.14226E+02 1.98462E+01
 -1      3700 2.45000E+01-4.13336E+02 2.03024E+01
 -1      3709 2.40000E+01-4.13706E+02 1.99375E+01
 -1      3711 2.50000E+01-4.13706E+02 1.99375E+01
 -1      3712 2.45000E+01-4.14141E+02 1.96911E+01
 -1      3714 2.45000E+01-4.13271E+02 2.01839E+01
 -1      3723 2.40000E+01-4.13625E+02 1.98045E+01
 -1      3725 2.50000E+01-4.13625E+02 1.98045E+01
 -1      3726 2.45000E+01-4.14047E+02 1.95368E+01
 -1      3728 2.45000E+01-4.13203E+02 2.00723E+01
 -1      3737 2.40000E+01-4.13537E+02 1.96758E+01
 -1      3739 2.50000E+01-4.13537E+02 1.96758E+01
 -1      3740 2.45000E+01-4.13946E+02 1.93873E+01
 -1      3742 2.45000E+01-4.13129E+02 1.99643E+01
 -1      3751 2.40000E+01-4.13443E+02 1.95516E+01
 -1      3753 2.50000E+01-4.13443E+02 1.95516E+01
 -1      3754 2.45000E+01-4.13837E+02 1.92431E+01
 -1      3756 2.45000E+01-4.13050E+02 1.98600E+01
 -1      3765 2.40000E+01-4.13343E+02 1.94322E+01
 -1      3767 2.50000E+01-4.13343E+02 1.94322E+01
 -1      3768 2.45000E+01-4.13721E+02 1.91045E+01
 -1      3770 2.45000E+01-4.12965E+02 1.97600E+01
 -1      3779 2.40000E+01-4.13237E+02 1.93180E+01
 -1      3781 2.50000E+01-4.13237E+02 1.93180E+01
 -1      3782 2.45000E+01-4.13598E+02 1.89719E+01
 -1      3784 2.45000E+01-4.12876E+02 1.96641E+01
 -1      3793 2.40000E+01-4.13126E+02 1.92092E+01
 -1      3795 2.50000E+01-4.13126E+02 1.92092E+01
 -1      3796 2.45000E+01-4.13469E+02 1.88455E+01
 -1      3798 2.45000E+01-4.12782E+02 1.95729E+01
 -1      3807 2.40000E+01-4.13009E+02 1.91061E+01
 -1      3809 2.50000E+01-4.13009E+02 1.91061E+01
 -1      3810 2.45000E+01-4.13333E+02 1.87258E+01
 -1      3812 2.45000E+01-4.12684E+02 1.94865E+01
 -1      3821 2.40000E+01-4.12887E+02 1.90090E+01
 -1      3823 2.50000E+01-4.12887E+02 1.90090E+01
 -1      3824 2.45000E+01-4.13192E+02 1.86129E+01
 -1      3826 2.45000E+01-4.12582E+02 1.94050E+01
 -1      3835 2.40000E+01-4.12760E+02 1.89180E+01
 -1      3837 2.50000E+01-4.12760E+02 1.89180E+01
 -1      3838 2.45000E+01-4.13045E+02 1.85072E+01
 -1      3840 2.45000E+01-4.12475E+02 1.93288E+01
 -1      3849 2.40000E+01-4.12629E+02 1.88335E+01
 -1      3851 2.50000E+01-4.12629E+02 1.88335E+01
 -1      3852 2.45000E+01-4.12894E+02 1.84090E+01
 -1      3854 2.45000E+01-4.12365E+02 1.92579E+01
 -1      3863 2.40000E+01-4.12495E+02 1.87556E+01
 -1      3865 2.50000E+01-4.12495E+02 1.87556E+01
 -1      3866 2.45000E+01-4.12737E+02 1.83184E+01
 -1      3868 2.45000E+01-4.12252E+02 1.91927E+01
 -1      3877 2.40000E+01-4.12356E+02 1.86845E+01
 -1      3879 2.50000E+01-4.12356E+02 1.86845E+01
 -1      3880 2.45000E+01-4.12577E+02 1.82358E+01
 -1      3882 2.45000E+01-4.12135E+02 1.91331E+01
 -1      3891 2.40000E+01-4.12214E+02 1.86204E+01
 -1      3893 2.50000E+01-4.12214E+02 1.86204E+01
 -1      3894 2.45000E+01-4.12412E+02 1.81613E+01
 -1      3896 2.45000E+01-4.12016E+02 1.90795E+01
 -1      3905 2.40000E+01-4.12069E+02 1.85635E+01
 -1      3907 2.50000E+01-4.12069E+02 1.85635E+01
 -1      3908 2.45000E+01-4.12244E+02 1.80951E+01
 -1      3910 2.45000E+01-4.11894E+02 1.90319E+01
 -1      3919 2.40000E+01-4.11921E+02 1.85138E+01
 -1      3921 2.50000E+01-4.11921E+02 1.85138E+01
 -1      3922 2.45000E+01-4.12072E+02 1.80373E+01
 -1      3924 2.45000E+01-4.11770E+02 1.89904E+01
 -1      3933 2.40000E+01-4.11771E+02 1.84716E+01
 -1      3935 2.50000E+01-4.11771E+02 1.84716E+01
 -1      3936 2.45000E+01-4.11899E+02 1.79881E+01
 -1      3938 2.45000E+01-4.11644E+02 1.89551E+01
 -1      3947 2.40000E+01-4.11619E+02 1.84370E+01
 -1      3949 2.50000E+01-4.11619E+02 1.84370E+01
 -1      3950 2.45000E+01-4.11722E+02 1.79477E+01
 -1      3952 2.45000E+01-4.11516E+02 1.89262E+01
 -1      3961 2.40000E+01-4.11466E+02 1.84099E+01
 -1      3963 2.50000E+01-4.11466E+02 1.84099E+01
 -1      3964 2.45000E+01-4.11544E+02 1.79161E+01
 -1      3966 2.45000E+01-4.11387E+02 1.89037E+01
 -1      3975 2.40000E+01-4.11311E+02 1.83905E+01
 -1      3977 2.50000E+01-4.11311E+02 1.83905E+01
 -1      3978 2.45000E+01-4.11365E+02 1.78934E+01
 -1      3980 2.45000E+01-4.11257E+02 1.88876E+01
 -1      3989 2.40000E+01-4.11156E+02 1.83789E+01
 -1      3991 2.50000E+01-4.11156E+02 1.83789E+01
 -1      3992 2.45000E+01-4.11185E+02 1.78797E+01
 -1      3994 2.45000E+01-4.11127E+02 1.88780E+01
 -1      4003 2.40000E+01-4.11000E+02 1.83750E+01
 -1      4005 2.50000E+01-4.11000E+02 1.83750E+01
 -1      4006 2.45000E+01-4.11004E+02 1.78750E+01
 -1      4008 2.45000E+01-4.10996E+02 1.88750E+01
 -1      4017 2.40000E+01-4.10844E+02 1.83789E+01
 -1      4019 2.50000E+01-4.10844E+02 1.83789E+01
 -1      4020 2.45000E+01-4.10823E+02 1.78793E+01
 -1      4022 2.45000E+01-4.10865E+02 1.88785E+01
 -1      4031 2.40000E+01-4.10689E+02 1.83905E+01
 -1      4033 2.50000E+01-4.10689E+02 1.83905E+01
 -1      4034 2.45000E+01-4.10639E+02 1.78930E+01
 -1      4036 2.45000E+01-4.10739E+02 1.88880E+01
 -1      4045 2.40000E+01-4.10534E+02 1.84099E+01
 -1      4047 2.50000E+01-4.10534E+02 1.84099E+01
 -1      4048 2.45000E+01-4.10460E+02 1.79155E+01
 -1      4050 2.45000E+01-4.10609E+02 1.89043E+01
 -1      4059 2.40000E+01-4.10381E+02 1.84370E+01
 -1      4061 2.50000E+01-4.10381E+02 1.84370E+01
 -1      4062 2.45000E+01-4.10282E+02 1.79469E+01
 -1      4064 2.45000E+01-4.10480E+02 1.89270E+01
 -1      4073 2.40000E+01-4.10229E+02 1.84716E+01
 -1      4075 2.50000E+01-4.10229E+02 1.84716E+01
 -1      4076 2.45000E+01-4.10101E+02 1.79881E+01
 -1      4078 2.45000E+01-4.10356E+02 1.89551E+01
 -1      4087 2.40000E+01-4.10079E+02 1.85138E+01
 -1      4089 2.50000E+01-4.10079E+02 1.85138E+01
 -1      4090 2.45000E+01-4.09932E+02 1.80360E+01
 -1      4092 2.45000E+01-4.10226E+02 1.89916E+01
 -1      4101 2.40000E+01-4.09931E+02 1.85635E+01
 -1      4103 2.50000E+01-4.09931E+02 1.85635E+01
 -1      4104 2.45000E+01-4.09764E+02 1.80922E+01
 -1      4106 2.45000E+01-4.10098E+02 1.90347E+01
 -1      4115 2.40000E+01-4.09786E+02 1.86204E+01
 -1      4117 2.50000E+01-4.09786E+02 1.86204E+01
 -1      4118 2.45000E+01-4.09592E+02 1.81596E+01
 -1      4120 2.45000E+01-4.09980E+02 1.90811E+01
 -1      4129 2.40000E+01-4.09644E+02 1.86845E+01
 -1      4131 2.50000E+01-4.09644E+02 1.86845E+01
 -1      4132 2.45000E+01-4.09427E+02 1.82340E+01
 -1      4134 2.45000E+01-4.09861E+02 1.91350E+01
 -1      4143 2.40000E+01-4.09505E+02 1.87556E+01
 -1      4145 2.50000E+01-4.09505E+02 1.87556E+01
 -1      4146 2.45000E+01-4.09270E+02 1.83145E+01
 -1      4148 2.45000E+01-4.09741E+02 1.91966E+01
 -1      4157 2.40000E+01-4.09371E+02 1.88335E+01
 -1      4159 2.50000E+01-4.09371E+02 1.88335E+01
 -1      4160 2.45000E+01-4.09113E+02 1.84047E+01
 -1      4162 2.45000E+01-4.09628E+02 1.92623E+01
 -1      4171 2.40000E+01-4.09240E+02 1.89180E+01
 -1      4173 2.50000E+01-4.09240E+02 1.89180E+01
 -1      4174 2.45000E+01-4.08961E+02 1.85026E+01
 -1      4176 2.45000E+01-4.09518E+02 1.93335E+01
 -1      4185 2.40000E+01 4.16763E+02 2.36820E+01
 -1      4187 2.50000E+01 4.16763E+02 2.36820E+01
 -1      4188 2.45000E+01 4.16408E+02 2.40341E+01
 -1      4190 2.45000E+01 4.17118E+02 2.33299E+01
 -1      4199 2.40000E+01-4.08763E+02 2.36820E+01
 -1      4201 2.50000E+01-4.08763E+02 2.36820E+01
 -1      4202 2.45000E+01-4.08402E+02 2.40281E+01
 -1      4204 2.45000E+01-4.09124E+02 2.33359E+01
 -1      4213 2.40000E+01-4.08657E+02 2.35678E+01
 -1      4215 2.50000E+01-4.08657E+02 2.35678E+01
 -1      4216 2.45000E+01-4.08279E+02 2.38955E+01
 -1      4218 2.45000E+01-4.09035E+02 2.32400E+01
 -1      4227 2.40000E+01 4.16874E+02 2.37908E+01
 -1      4229 2.50000E+01 4.16874E+02 2.37908E+01
 -1      4230 2.45000E+01 4.16537E+02 2.41601E+01
 -1      4232 2.45000E+01 4.17211E+02 2.34214E+01
 -1      4241 2.40000E+01-4.08874E+02 2.37908E+01
 -1      4243 2.50000E+01-4.08874E+02 2.37908E+01
 -1      4244 2.45000E+01-4.08531E+02 2.41545E+01
 -1      4246 2.45000E+01-4.09218E+02 2.34271E+01
 -1      4255 2.40000E+01 4.16657E+02 2.35678E+01
 -1      4257 2.50000E+01 4.16657E+02 2.35678E+01
 -1      4258 2.45000E+01 4.16285E+02 2.39017E+01
 -1      4260 2.45000E+01 4.17029E+02 2.32338E+01
 -1      4269 2.40000E+01 4.16557E+02 2.34484E+01
 -1      4271 2.50000E+01 4.16557E+02 2.34484E+01
 -1      4272 2.45000E+01 4.16168E+02 2.37634E+01
 -1      4274 2.45000E+01 4.16945E+02 2.31334E+01
 -1      4283 2.40000E+01-4.08557E+02 2.34484E+01
 -1      4285 2.50000E+01-4.08557E+02 2.34484E+01
 -1      4286 2.45000E+01-4.08163E+02 2.37569E+01
 -1      4288 2.45000E+01-4.08950E+02 2.31400E+01
 -1      4297 2.40000E+01 4.16463E+02 2.33242E+01
 -1      4299 2.50000E+01 4.16463E+02 2.33242E+01
 -1      4300 2.45000E+01 4.16059E+02 2.36194E+01
 -1      4302 2.45000E+01 4.16866E+02 2.30290E+01
 -1      4311 2.40000E+01-4.08463E+02 2.33242E+01
 -1      4313 2.50000E+01-4.08463E+02 2.33242E+01
 -1      4314 2.45000E+01-4.08054E+02 2.36127E+01
 -1      4316 2.45000E+01-4.08871E+02 2.30357E+01
 -1      4325 2.40000E+01 4.16375E+02 2.31955E+01
 -1      4327 2.50000E+01 4.16375E+02 2.31955E+01
 -1      4328 2.45000E+01 4.15955E+02 2.34667E+01
 -1      4330 2.45000E+01 4.16795E+02 2.29242E+01
 -1      4339 2.40000E+01-4.08375E+02 2.31955E+01
 -1      4341 2.50000E+01-4.08375E+02 2.31955E+01
 -1      4342 2.45000E+01-4.07953E+02 2.34632E+01
 -1      4344 2.45000E+01-4.08797E+02 2.29277E+01
 -1      4353 2.40000E+01 4.16294E+02 2.30625E+01
 -1      4355 2.50000E+01 4.16294E+02 2.30625E+01
 -1      4356 2.45000E+01 4.15861E+02 2.33125E+01
 -1      4358 2.45000E+01 4.16727E+02 2.28125E+01
 -1      4367 2.40000E+01-4.08294E+02 2.30625E+01
 -1      4369 2.50000E+01-4.08294E+02 2.30625E+01
 -1      4370 2.45000E+01-4.07859E+02 2.33089E+01
 -1      4372 2.45000E+01-4.08729E+02 2.28161E+01
 -1      4381 2.40000E+01 4.16219E+02 2.29257E+01
 -1      4383 2.50000E+01 4.16219E+02 2.29257E+01
 -1      4384 2.45000E+01 4.15774E+02 2.31538E+01
 -1      4386 2.45000E+01 4.16664E+02 2.26976E+01
 -1      4395 2.40000E+01-4.08219E+02 2.29257E+01
 -1      4397 2.50000E+01-4.08219E+02 2.29257E+01
 -1      4398 2.45000E+01-4.07774E+02 2.31538E+01
 -1      4400 2.45000E+01-4.08664E+02 2.26976E+01
 -1      4409 2.40000E+01-4.08152E+02 2.27853E+01
 -1      4411 2.50000E+01-4.08152E+02 2.27853E+01
 -1      4412 2.45000E+01-4.07696E+02 2.29909E+01
 -1      4414 2.45000E+01-4.08607E+02 2.25797E+01
 -1      4423 2.40000E+01 4.16152E+02 2.27853E+01
 -1      4425 2.50000E+01 4.16152E+02 2.27853E+01
 -1      4426 2.45000E+01 4.15696E+02 2.29909E+01
 -1      4428 2.45000E+01 4.16607E+02 2.25797E+01
 -1      4437 2.40000E+01 4.16091E+02 2.26417E+01
 -1      4439 2.50000E+01 4.16091E+02 2.26417E+01
 -1      4440 2.45000E+01 4.15626E+02 2.28244E+01
 -1      4442 2.45000E+01 4.16556E+02 2.24590E+01
 -1      4451 2.40000E+01-4.08091E+02 2.26417E+01
 -1      4453 2.50000E+01-4.08091E+02 2.26417E+01
 -1      4454 2.45000E+01-4.07624E+02 2.28205E+01
 -1      4456 2.45000E+01-4.08558E+02 2.24629E+01
 -1      4465 2.40000E+01 4.16038E+02 2.24953E+01
 -1      4467 2.50000E+01 4.16038E+02 2.24953E+01
 -1      4468 2.45000E+01 4.15564E+02 2.26545E+01
 -1      4470 2.45000E+01 4.16512E+02 2.23360E+01
 -1      4479 2.40000E+01-4.08038E+02 2.24953E+01
 -1      4481 2.50000E+01-4.08038E+02 2.24953E+01
 -1      4482 2.45000E+01-4.07562E+02 2.26506E+01
 -1      4484 2.45000E+01-4.08513E+02 2.23400E+01
 -1      4493 2.40000E+01 4.15992E+02 2.23464E+01
 -1      4495 2.50000E+01 4.15992E+02 2.23464E+01
 -1      4496 2.45000E+01 4.15512E+02 2.24858E+01
 -1      4498 2.45000E+01 4.16472E+02 2.22070E+01
 -1      4507 2.40000E+01-4.07992E+02 2.23464E+01
 -1      4509 2.50000E+01-4.07992E+02 2.23464E+01
 -1      4510 2.45000E+01-4.07509E+02 2.24778E+01
 -1      4512 2.45000E+01-4.08474E+02 2.22150E+01
 -1      4521 2.40000E+01 4.15953E+02 2.21954E+01
 -1      4523 2.50000E+01 4.15953E+02 2.21954E+01
 -1      4524 2.45000E+01 4.15466E+02 2.23066E+01
 -1      4526 2.45000E+01 4.16441E+02 2.20841E+01
 -1      4535 2.40000E+01-4.07953E+02 2.21954E+01
 -1      4537 2.50000E+01-4.07953E+02 2.21954E+01
 -1      4538 2.45000E+01-4.07465E+02 2.23025E+01
 -1      4540 2.45000E+01-4.08442E+02 2.20882E+01
 -1      4549 2.40000E+01 4.15922E+02 2.20427E+01
 -1      4551 2.50000E+01 4.15922E+02 2.20427E+01
 -1      4552 2.45000E+01 4.15429E+02 2.21254E+01
 -1      4554 2.45000E+01 4.16416E+02 2.19599E+01
 -1      4563 2.40000E+01-4.07922E+02 2.20427E+01
 -1      4565 2.50000E+01-4.07922E+02 2.20427E+01
 -1      4566 2.45000E+01-4.07430E+02 2.21294E+01
 -1      4568 2.45000E+01-4.08415E+02 2.19559E+01
 -1      4577 2.40000E+01 4.15899E+02 2.18886E+01
 -1      4579 2.50000E+01 4.15899E+02 2.18886E+01
 -1      4580 2.45000E+01 4.15403E+02 2.19508E+01
 -1      4582 2.45000E+01 4.16395E+02 2.18264E+01
 -1      4591 2.40000E+01-4.07899E+02 2.18886E+01
 -1      4593 2.50000E+01-4.07899E+02 2.18886E+01
 -1      4594 2.45000E+01-4.07403E+02 2.19508E+01
 -1      4596 2.45000E+01-4.08395E+02 2.18264E+01
 -1      4605 2.40000E+01 4.15884E+02 2.17335E+01
 -1      4607 2.50000E+01 4.15884E+02 2.17335E+01
 -1      4608 2.45000E+01 4.15385E+02 2.17709E+01
 -1      4610 2.45000E+01 4.16382E+02 2.16962E+01
 -1      4619 2.40000E+01-4.07884E+02 2.17335E+01
 -1      4621 2.50000E+01-4.07884E+02 2.17335E+01
 -1      4622 2.45000E+01-4.07385E+02 2.17709E+01
 -1      4624 2.45000E+01-4.08382E+02 2.16962E+01
 -1      4633 2.40000E+01 4.15876E+02 2.15779E+01
 -1      4635 2.50000E+01 4.15876E+02 2.15779E+01
 -1      4636 2.45000E+01 4.15376E+02 2.15903E+01
 -1      4638 2.45000E+01 4.16376E+02 2.15655E+01
 -1      4647 2.40000E+01-4.07876E+02 2.15779E+01
 -1      4649 2.50000E+01-4.07876E+02 2.15779E+01
 -1      4650 2.45000E+01-4.07376E+02 2.15903E+01
 -1      4652 2.45000E+01-4.08376E+02 2.15655E+01
 -1      4661 2.40000E+01 4.15876E+02 2.14221E+01
 -1      4663 2.50000E+01 4.15876E+02 2.14221E+01
 -1      4664 2.45000E+01 4.15376E+02 2.14097E+01
 -1      4666 2.45000E+01 4.16376E+02 2.14345E+01
 -1      4675 2.40000E+01-4.07876E+02 2.14221E+01
 -1      4677 2.50000E+01-4.07876E+02 2.14221E+01
 -1      4678 2.45000E+01-4.07376E+02 2.14097E+01
 -1      4680 2.45000E+01-4.08376E+02 2.14345E+01
 -1      4689 2.40000E+01-4.07884E+02 2.12665E+01
 -1      4691 2.50000E+01-4.07884E+02 2.12665E+01
 -1      4692 2.45000E+01-4.07385E+02 2.12291E+01
 -1      4694 2.45000E+01-4.08382E+02 2.13038E+01
 -1      4703 2.40000E+01 4.15884E+02 2.12665E+01
 -1      4705 2.50000E+01 4.15884E+02 2.12665E+01
 -1      4706 2.45000E+01 4.15385E+02 2.12291E+01
 -1      4708 2.45000E+01 4.16382E+02 2.13038E+01
 -1      4717 2.40000E+01 4.15899E+02 2.11114E+01
 -1      4719 2.50000E+01 4.15899E+02 2.11114E+01
 -1      4720 2.45000E+01 4.15403E+02 2.10492E+01
 -1      4722 2.45000E+01 4.16395E+02 2.11736E+01
 -1      4731 2.40000E+01-4.07899E+02 2.11114E+01
 -1      4733 2.50000E+01-4.07899E+02 2.11114E+01
 -1      4734 2.45000E+01-4.07403E+02 2.10492E+01
 -1      4736 2.45000E+01-4.08395E+02 2.11736E+01
 -1      4745 2.40000E+01 4.15922E+02 2.09573E+01
 -1      4747 2.50000E+01 4.15922E+02 2.09573E+01
 -1      4748 2.45000E+01 4.15430E+02 2.08706E+01
 -1      4750 2.45000E+01 4.16415E+02 2.10441E+01
 -1      4759 2.40000E+01-4.07922E+02 2.09573E+01
 -1      4761 2.50000E+01-4.07922E+02 2.09573E+01
 -1      4762 2.45000E+01-4.07429E+02 2.08746E+01
 -1      4764 2.45000E+01-4.08416E+02 2.10401E+01
 -1      4773 2.40000E+01 4.15953E+02 2.08046E+01
 -1      4775 2.50000E+01 4.15953E+02 2.08046E+01
 -1      4776 2.45000E+01 4.15465E+02 2.06975E+01
 -1      4778 2.45000E+01 4.16442E+02 2.09118E+01
 -1      4787 2.40000E+01-4.07953E+02 2.08046E+01
 -1      4789 2.50000E+01-4.07953E+02 2.08046E+01
 -1      4790 2.45000E+01-4.07466E+02 2.06934E+01
 -1      4792 2.45000E+01-4.08441E+02 2.09159E+01
 -1      4801 2.40000E+01-4.07992E+02 2.06536E+01
 -1      4803 2.50000E+01-4.07992E+02 2.06536E+01
 -1      4804 2.45000E+01-4.07512E+02 2.05142E+01
 -1      4806 2.45000E+01-4.08472E+02 2.07930E+01
 -1      4815 2.40000E+01 4.15992E+02 2.06536E+01
 -1      4817 2.50000E+01 4.15992E+02 2.06536E+01
 -1      4818 2.45000E+01 4.15509E+02 2.05222E+01
 -1      4820 2.45000E+01 4.16474E+02 2.07850E+01
 -1      4829 2.40000E+01 4.16038E+02 2.05047E+01
 -1      4831 2.50000E+01 4.16038E+02 2.05047E+01
 -1      4832 2.45000E+01 4.15562E+02 2.03494E+01
 -1      4834 2.45000E+01 4.16513E+02 2.06600E+01
 -1      4843 2.40000E+01-4.08038E+02 2.05047E+01
 -1      4845 2.50000E+01-4.08038E+02 2.05047E+01
 -1      4846 2.45000E+01-4.07564E+02 2.03455E+01
 -1      4848 2.45000E+01-4.08512E+02 2.06640E+01
 -1      4857 2.40000E+01 4.16091E+02 2.03583E+01
 -1      4859 2.50000E+01 4.16091E+02 2.03583E+01
 -1      4860 2.45000E+01 4.15624E+02 2.01795E+01
 -1      4862 2.45000E+01 4.16558E+02 2.05371E+01
 -1      4871 2.40000E+01-4.08091E+02 2.03583E+01
 -1      4873 2.50000E+01-4.08091E+02 2.03583E+01
 -1      4874 2.45000E+01-4.07626E+02 2.01756E+01
 -1      4876 2.45000E+01-4.08556E+02 2.05410E+01
 -1      4885 2.40000E+01 4.16152E+02 2.02147E+01
 -1      4887 2.50000E+01 4.16152E+02 2.02147E+01
 -1      4888 2.45000E+01 4.15696E+02 2.00091E+01
 -1      4890 2.45000E+01 4.16607E+02 2.04203E+01
 -1      4899 2.40000E+01-4.08152E+02 2.02147E+01
 -1      4901 2.50000E+01-4.08152E+02 2.02147E+01
 -1      4902 2.45000E+01-4.07696E+02 2.00091E+01
 -1      4904 2.45000E+01-4.08607E+02 2.04203E+01
 -1      4913 2.40000E+01 4.16219E+02 2.00743E+01
 -1      4915 2.50000E+01 4.16219E+02 2.00743E+01
 -1      4916 2.45000E+01 4.15774E+02 1.98462E+01
 -1      4918 2.45000E+01 4.16664E+02 2.03024E+01
 -1      4927 2.40000E+01-4.08219E+02 2.00743E+01
 -1      4929 2.50000E+01-4.08219E+02 2.00743E+01
 -1      4930 2.45000E+01-4.07774E+02 1.98462E+01
 -1      4932 2.45000E+01-4.08664E+02 2.03024E+01
 -1      4941 2.40000E+01 4.16294E+02 1.99375E+01
 -1      4943 2.50000E+01 4.16294E+02 1.99375E+01