    1C
    1UFEA case 0024                                                     
    1UUSER                                                              
    1UDATE              19.may.2026                                     
    1UTIME              10:24:11                                        
    1UHOST                                                              
    1UPGM               CalculiX                                        
    1UVERSION           Version 2.21                             
    1UCOMPILETIME       Sat Jul 29 10:52:01 CEST 2023                    
    1UDIR                                                               
    1UDBN                                                               
    1UMAT    1GI                                                        
    2C                          7634                                     1
 -1      2556 2.40000E+01-4.13343E+02 2.35678E+01
 -1      2558 2.50000E+01-4.13343E+02 2.35678E+01
 -1      2559 2.40000E+01-4.13237E+02 2.36820E+01
 -1      2561 2.50000E+01-4.13237E+02 2.36820E+01
 -1      2562 2.40000E+01-4.22500E+02 3.30000E+01
 -1      2564 2.50000E+01-4.22500E+02 3.30000E+01
 -1      2565 2.45000E+01-4.22000E+02 3.30000E+01
 -1      2567 2.45000E+01-4.23000E+02 3.30000E+01
 -1      2576 2.40000E+01-4.13443E+02 2.34484E+01
 -1      2578 2.50000E+01-4.13443E+02 2.34484E+01
 -1      2579 2.40000E+01-4.12495E+02 2.42444E+01
 -1      2581 2.50000E+01-4.12495E+02 2.42444E+01
 -1      2582 2.45000E+01-4.12734E+02 2.46836E+01
 -1      2584 2.45000E+01-4.12255E+02 2.38053E+01
 -1      2593 2.40000E+01-4.12629E+02 2.41665E+01
 -1      2595 2.50000E+01-4.12629E+02 2.41665E+01
 -1      2596 2.45000E+01-4.12887E+02 2.45953E+01
 -1      2598 2.45000E+01-4.12372E+02 2.37377E+01
 -1      2607 2.40000E+01-4.12356E+02 2.43155E+01
 -1      2609 2.50000E+01-4.12356E+02 2.43155E+01
 -1      2610 2.40000E+01-4.13848E+02 2.27853E+01
 -1      2612 2.50000E+01-4.13848E+02 2.27853E+01
 -1      2613 2.45000E+01-4.14299E+02 2.30022E+01
 -1      2615 2.45000E+01-4.13398E+02 2.25684E+01
 -1      2624 2.40000E+01-4.13781E+02 2.29257E+01
 -1      2626 2.50000E+01-4.13781E+02 2.29257E+01
 -1      2627 2.45000E+01-4.14231E+02 2.31426E+01
 -1      2629 2.45000E+01-4.13330E+02 2.27087E+01
 -1      2638 2.40000E+01-4.13909E+02 2.26417E+01
 -1      2640 2.50000E+01-4.13909E+02 2.26417E+01
 -1      2641 2.40000E+01-4.11771E+02 2.45284E+01
 -1      2643 2.50000E+01-4.11771E+02 2.45284E+01
 -1      2644 2.40000E+01-4.11921E+02 2.44862E+01
 -1      2646 2.50000E+01-4.11921E+02 2.44862E+01
 -1      2647 2.45000E+01-4.12080E+02 2.49601E+01
 -1      2649 2.45000E+01-4.11762E+02 2.40122E+01
 -1      2658 2.40000E+01-4.14047E+02 2.21954E+01
 -1      2660 2.50000E+01-4.14047E+02 2.21954E+01
 -1      2661 2.45000E+01-4.14534E+02 2.23066E+01
 -1      2663 2.45000E+01-4.13559E+02 2.20841E+01
 -1      2672 2.40000E+01-4.14008E+02 2.23464E+01
 -1      2674 2.50000E+01-4.14008E+02 2.23464E+01
 -1      2675 2.45000E+01-4.14493E+02 2.24698E+01
 -1      2677 2.45000E+01-4.13524E+02 2.22230E+01
 -1      2686 2.40000E+01-4.11619E+02 2.45630E+01
 -1      2688 2.50000E+01-4.11619E+02 2.45630E+01
 -1      2689 2.45000E+01-4.11718E+02 2.50531E+01
 -1      2691 2.45000E+01-4.11520E+02 2.40730E+01
 -1      2700 2.40000E+01-4.14078E+02 2.20427E+01
 -1      2702 2.50000E+01-4.14078E+02 2.20427E+01
 -1      2703 2.40000E+01-4.14116E+02 2.17335E+01
 -1      2705 2.50000E+01-4.14116E+02 2.17335E+01
 -1      2706 2.45000E+01-4.14615E+02 2.17751E+01
 -1      2708 2.45000E+01-4.13618E+02 2.16920E+01
 -1      2717 2.40000E+01-4.14101E+02 2.18886E+01
 -1      2719 2.50000E+01-4.14101E+02 2.18886E+01
 -1      2720 2.45000E+01-4.14598E+02 2.19384E+01
 -1      2722 2.45000E+01-4.13603E+02 2.18387E+01
 -1      2731 2.40000E+01-4.11156E+02 2.46211E+01
 -1      2733 2.50000E+01-4.11156E+02 2.46211E+01
 -1      2734 2.45000E+01-4.11168E+02 2.51210E+01
 -1      2736 2.45000E+01-4.11143E+02 2.41213E+01
 -1      2745 2.40000E+01-4.11311E+02 2.46095E+01
 -1      2747 2.50000E+01-4.11311E+02 2.46095E+01
 -1      2748 2.40000E+01-4.11000E+02 2.46250E+01
 -1      2750 2.50000E+01-4.11000E+02 2.46250E+01
 -1      2751 2.40000E+01-4.10844E+02 2.46211E+01
 -1      2753 2.50000E+01-4.10844E+02 2.46211E+01
 -1      2754 2.45000E+01-4.10807E+02 2.51197E+01
 -1      2756 2.45000E+01-4.10882E+02 2.41225E+01
 -1      2765 2.40000E+01-4.10689E+02 2.46095E+01
 -1      2767 2.50000E+01-4.10689E+02 2.46095E+01
 -1      2768 2.45000E+01-4.10627E+02 2.51056E+01
 -1      2770 2.45000E+01-4.10751E+02 2.41134E+01
 -1      2779 2.40000E+01-4.10534E+02 2.45901E+01
 -1      2781 2.50000E+01-4.10534E+02 2.45901E+01
 -1      2782 2.45000E+01-4.10447E+02 2.50825E+01
 -1      2784 2.45000E+01-4.10621E+02 2.40977E+01
 -1      2793 2.40000E+01-4.09931E+02 2.44365E+01
 -1      2795 2.50000E+01-4.09931E+02 2.44365E+01
 -1      2796 2.45000E+01-4.09772E+02 2.49105E+01
 -1      2798 2.45000E+01-4.10090E+02 2.39626E+01
 -1      2807 2.40000E+01-4.10079E+02 2.44862E+01
 -1      2809 2.50000E+01-4.10079E+02 2.44862E+01
 -1      2810 2.45000E+01-4.09920E+02 2.49601E+01
 -1      2812 2.45000E+01-4.10238E+02 2.40122E+01
 -1      2821 2.40000E+01-4.09371E+02 2.41665E+01
 -1      2823 2.50000E+01-4.09371E+02 2.41665E+01
 -1      2824 2.45000E+01-4.09121E+02 2.45996E+01
 -1      2826 2.45000E+01-4.09621E+02 2.37335E+01
 -1      2835 2.40000E+01-4.09505E+02 2.42444E+01
 -1      2837 2.50000E+01-4.09505E+02 2.42444E+01
 -1      2838 2.45000E+01-4.09255E+02 2.46775E+01
 -1      2840 2.45000E+01-4.09755E+02 2.38114E+01
 -1      2849 2.40000E+01-4.22500E+02 1.00000E+01
 -1      2851 2.50000E+01-4.22500E+02 1.00000E+01
 -1      2852 2.45000E+01-4.22500E+02 9.50000E+00
 -1      2854 2.45000E+01-4.22500E+02 1.05000E+01
 -1      2855 2.45000E+01-4.22000E+02 1.00000E+01
 -1      2857 2.45000E+01-4.23000E+02 1.00000E+01
 -1      2869 2.40000E+01-4.14124E+02 2.15779E+01
 -1      2871 2.50000E+01-4.14124E+02 2.15779E+01
 -1      2872 2.45000E+01-4.14623E+02 2.16028E+01
 -1      2874 2.45000E+01-4.13625E+02 2.15530E+01
 -1      2883 2.40000E+01-4.14047E+02 2.08046E+01
 -1      2885 2.50000E+01-4.14047E+02 2.08046E+01
 -1      2886 2.45000E+01-4.14531E+02 2.06812E+01
 -1      2888 2.45000E+01-4.13562E+02 2.09280E+01
 -1      2897 2.40000E+01-4.14078E+02 2.09573E+01
 -1      2899 2.50000E+01-4.14078E+02 2.09573E+01
 -1      2900 2.45000E+01-4.14572E+02 2.08828E+01
 -1      2902 2.45000E+01-4.13583E+02 2.10319E+01
 -1      2911 2.40000E+01-4.13625E+02 1.98045E+01
 -1      2913 2.50000E+01-4.13625E+02 1.98045E+01
 -1      2914 2.40000E+01-4.13706E+02 1.99375E+01
 -1      2916 2.50000E+01-4.13706E+02 1.99375E+01
 -1      2917 2.40000E+01-4.13343E+02 1.94322E+01
 -1      2919 2.50000E+01-4.13343E+02 1.94322E+01
 -1      2920 2.40000E+01-4.13443E+02 1.95516E+01
 -1      2922 2.50000E+01-4.13443E+02 1.95516E+01
 -1      2923 2.45000E+01-4.13842E+02 1.92497E+01
 -1      2925 2.45000E+01-4.13045E+02 1.98534E+01
 -1      2934 2.40000E+01-4.13237E+02 1.93180E+01
 -1      2936 2.50000E+01-4.13237E+02 1.93180E+01
 -1      2937 2.45000E+01-4.13604E+02 1.89779E+01
 -1      2939 2.45000E+01-4.12871E+02 1.96581E+01
 -1      2948 2.40000E+01-4.13009E+02 1.91061E+01
 -1      2950 2.50000E+01-4.13009E+02 1.91061E+01
 -1      2951 2.40000E+01-4.13126E+02 1.92092E+01
 -1      2953 2.50000E+01-4.13126E+02 1.92092E+01
 -1      2954 2.40000E+01-4.12760E+02 1.89180E+01
 -1      2956 2.50000E+01-4.12760E+02 1.89180E+01
 -1      2957 2.45000E+01-4.13032E+02 1.84980E+01
 -1      2959 2.45000E+01-4.12489E+02 1.93380E+01
 -1      2968 2.40000E+01-4.12887E+02 1.90090E+01
 -1      2970 2.50000E+01-4.12887E+02 1.90090E+01
 -1      2971 2.45000E+01-4.13199E+02 1.86181E+01
 -1      2973 2.45000E+01-4.12575E+02 1.93998E+01
 -1      2982 2.40000E+01-4.12629E+02 1.88335E+01
 -1      2984 2.50000E+01-4.12629E+02 1.88335E+01
 -1      2985 2.45000E+01-4.12890E+02 1.84068E+01
 -1      2987 2.45000E+01-4.12369E+02 1.92601E+01
 -1      2996 2.40000E+01-4.12495E+02 1.87556E+01
 -1      2998 2.50000E+01-4.12495E+02 1.87556E+01
 -1      2999 2.45000E+01-4.12737E+02 1.83184E+01
 -1      3001 2.45000E+01-4.12252E+02 1.91927E+01
 -1      3010 2.40000E+01-4.12214E+02 1.86204E+01
 -1      3012 2.50000E+01-4.12214E+02 1.86204E+01
 -1      3013 2.45000E+01-4.12420E+02 1.81646E+01
 -1      3015 2.45000E+01-4.12008E+02 1.90761E+01
 -1      3024 2.40000E+01-4.12356E+02 1.86845E+01
 -1      3026 2.50000E+01-4.12356E+02 1.86845E+01
 -1      3027 2.45000E+01-4.12584E+02 1.82395E+01
 -1      3029 2.45000E+01-4.12128E+02 1.91294E+01
 -1      3038 2.40000E+01-4.12069E+02 1.85635E+01
 -1      3040 2.50000E+01-4.12069E+02 1.85635E+01
 -1      3041 2.45000E+01-4.12228E+02 1.80895E+01
 -1      3043 2.45000E+01-4.11910E+02 1.90374E+01
 -1      3052 2.40000E+01-4.10844E+02 1.83789E+01
 -1      3054 2.50000E+01-4.10844E+02 1.83789E+01
 -1      3055 2.45000E+01-4.10807E+02 1.78803E+01
 -1      3057 2.45000E+01-4.10882E+02 1.88775E+01
 -1      3066 2.40000E+01-4.11000E+02 1.83750E+01
 -1      3068 2.50000E+01-4.11000E+02 1.83750E+01
 -1      3069 2.45000E+01-4.11012E+02 1.78752E+01
 -1      3071 2.45000E+01-4.10988E+02 1.88748E+01
 -1      3080 2.40000E+01-4.09931E+02 1.85635E+01
 -1      3082 2.50000E+01-4.09931E+02 1.85635E+01
 -1      3083 2.45000E+01-4.09760E+02 1.80936E+01
 -1      3085 2.45000E+01-4.10102E+02 1.90333E+01
 -1      3094 2.40000E+01-4.10079E+02 1.85138E+01
 -1      3096 2.50000E+01-4.10079E+02 1.85138E+01
 -1      3097 2.40000E+01-4.09505E+02 1.87556E+01
 -1      3099 2.50000E+01-4.09505E+02 1.87556E+01
 -1      3100 2.45000E+01-4.09277E+02 1.83106E+01
 -1      3102 2.45000E+01-4.09734E+02 1.92005E+01
 -1      3111 2.40000E+01-4.09644E+02 1.86845E+01
 -1      3113 2.50000E+01-4.09644E+02 1.86845E+01
 -1      3114 2.40000E+01-4.09371E+02 1.88335E+01
 -1      3116 2.50000E+01-4.09371E+02 1.88335E+01
 -1      3117 2.40000E+01-4.09240E+02 1.89180E+01
 -1      3119 2.50000E+01-4.09240E+02 1.89180E+01
 -1      3120 2.40000E+01 4.16557E+02 2.34484E+01
 -1      3122 2.50000E+01 4.16557E+02 2.34484E+01
 -1      3123 2.45000E+01 4.16166E+02 2.37601E+01
 -1      3125 2.45000E+01 4.16948E+02 2.31367E+01
 -1      3134 2.40000E+01 4.16657E+02 2.35678E+01
 -1      3136 2.50000E+01 4.16657E+02 2.35678E+01
 -1      3137 2.45000E+01 4.16282E+02 2.38986E+01
 -1      3139 2.45000E+01 4.17032E+02 2.32369E+01
 -1      3148 2.40000E+01-4.08657E+02 2.35678E+01
 -1      3150 2.50000E+01-4.08657E+02 2.35678E+01
 -1      3151 2.40000E+01 4.16091E+02 2.26417E+01
 -1      3153 2.50000E+01 4.16091E+02 2.26417E+01
 -1      3154 2.45000E+01 4.15621E+02 2.28128E+01
 -1      3156 2.45000E+01 4.16561E+02 2.24706E+01
 -1      3165 2.40000E+01-4.08152E+02 2.27853E+01
 -1      3167 2.50000E+01-4.08152E+02 2.27853E+01
 -1      3168 2.45000E+01-4.07696E+02 2.29909E+01
 -1      3170 2.45000E+01-4.08607E+02 2.25797E+01
 -1      3179 2.40000E+01-4.08091E+02 2.26417E+01
 -1      3181 2.50000E+01-4.08091E+02 2.26417E+01
 -1      3182 2.45000E+01-4.07630E+02 2.28359E+01
 -1      3184 2.45000E+01-4.08552E+02 2.24475E+01
 -1      3193 2.40000E+01 4.16038E+02 2.24953E+01
 -1      3195 2.50000E+01 4.16038E+02 2.24953E+01
 -1      3196 2.45000E+01 4.15560E+02 2.26427E+01
 -1      3198 2.45000E+01 4.16516E+02 2.23479E+01
 -1      3207 2.40000E+01 4.15992E+02 2.23464E+01
 -1      3209 2.50000E+01 4.15992E+02 2.23464E+01
 -1      3210 2.45000E+01 4.15510E+02 2.24818E+01
 -1      3212 2.45000E+01 4.16473E+02 2.22110E+01
 -1      3221 2.40000E+01-4.08038E+02 2.24953E+01
 -1      3223 2.50000E+01-4.08038E+02 2.24953E+01
 -1      3224 2.45000E+01-4.07560E+02 2.26427E+01
 -1      3226 2.45000E+01-4.08516E+02 2.23479E+01
 -1      3235 2.40000E+01 4.15953E+02 2.21954E+01
 -1      3237 2.50000E+01 4.15953E+02 2.21954E+01
 -1      3238 2.45000E+01 4.15469E+02 2.23188E+01
 -1      3240 2.45000E+01 4.16438E+02 2.20720E+01
 -1      3249 2.40000E+01-4.07992E+02 2.23464E+01
 -1      3251 2.50000E+01-4.07992E+02 2.23464E+01
 -1      3252 2.45000E+01-4.07509E+02 2.24778E+01
 -1      3254 2.45000E+01-4.08474E+02 2.22150E+01
 -1      3263 2.40000E+01 4.15922E+02 2.20427E+01
 -1      3265 2.50000E+01 4.15922E+02 2.20427E+01
 -1      3266 2.45000E+01 4.15428E+02 2.21172E+01
 -1      3268 2.45000E+01 4.16417E+02 2.19681E+01
 -1      3277 2.40000E+01-4.07953E+02 2.21954E+01
 -1      3279 2.50000E+01-4.07953E+02 2.21954E+01
 -1      3280 2.45000E+01-4.07469E+02 2.23188E+01
 -1      3282 2.45000E+01-4.08438E+02 2.20720E+01
 -1      3291 2.40000E+01-4.07922E+02 2.20427E+01
 -1      3293 2.50000E+01-4.07922E+02 2.20427E+01
 -1      3294 2.40000E+01 4.15899E+02 2.18886E+01
 -1      3296 2.50000E+01 4.15899E+02 2.18886E+01
 -1      3297 2.45000E+01 4.15405E+02 2.19631E+01
 -1      3299 2.45000E+01 4.16394E+02 2.18141E+01
 -1      3308 2.40000E+01-4.07899E+02 2.18886E+01
 -1      3310 2.50000E+01-4.07899E+02 2.18886E+01
 -1      3311 2.45000E+01-4.07402E+02 2.19384E+01
 -1      3313 2.45000E+01-4.08397E+02 2.18387E+01
 -1      3322 2.40000E+01 4.15876E+02 2.15779E+01
 -1      3324 2.50000E+01 4.15876E+02 2.15779E+01
 -1      3325 2.45000E+01 4.15376E+02 2.15903E+01
 -1      3327 2.45000E+01 4.16376E+02 2.15655E+01
 -1      3336 2.40000E+01 4.15884E+02 2.17335E+01
 -1      3338 2.50000E+01 4.15884E+02 2.17335E+01
 -1      3339 2.45000E+01 4.15384E+02 2.17584E+01
 -1      3341 2.45000E+01 4.16383E+02 2.17087E+01
 -1      3350 2.40000E+01-4.07884E+02 2.17335E+01
 -1      3352 2.50000E+01-4.07884E+02 2.17335E+01
 -1      3353 2.45000E+01-4.07385E+02 2.17709E+01
 -1      3355 2.45000E+01-4.08382E+02 2.16962E+01
 -1      3364 2.40000E+01 4.15899E+02 2.11114E+01
 -1      3366 2.50000E+01 4.15899E+02 2.11114E+01
 -1      3367 2.45000E+01 4.15405E+02 2.10369E+01
 -1      3369 2.45000E+01 4.16394E+02 2.11859E+01
 -1      3378 2.40000E+01 4.15884E+02 2.12665E+01
 -1      3380 2.50000E+01 4.15884E+02 2.12665E+01
 -1      3381 2.40000E+01-4.07884E+02 2.12665E+01
 -1      3383 2.50000E+01-4.07884E+02 2.12665E+01
 -1      3384 2.40000E+01 4.15953E+02 2.08046E+01
 -1      3386 2.50000E+01 4.15953E+02 2.08046E+01
 -1      3387 2.45000E+01 4.15463E+02 2.07056E+01
 -1      3389 2.45000E+01 4.16443E+02 2.09036E+01
 -1      3398 2.40000E+01-4.07953E+02 2.08046E+01
 -1      3400 2.50000E+01-4.07953E+02 2.08046E+01
 -1      3401 2.45000E+01-4.07469E+02 2.06812E+01
 -1      3403 2.45000E+01-4.08438E+02 2.09280E+01
 -1      3412 2.40000E+01-4.07992E+02 2.06536E+01
 -1      3414 2.50000E+01-4.07992E+02 2.06536E+01
 -1      3415 2.45000E+01-4.07507E+02 2.05302E+01
 -1      3417 2.45000E+01-4.08476E+02 2.07770E+01
 -1      3426 2.40000E+01-4.07922E+02 2.09573E+01
 -1      3428 2.50000E+01-4.07922E+02 2.09573E+01
 -1      3429 2.45000E+01-4.07428E+02 2.08828E+01
 -1      3431 2.45000E+01-4.08417E+02 2.10319E+01
 -1      3440 2.40000E+01 4.16038E+02 2.05047E+01
 -1      3442 2.50000E+01 4.16038E+02 2.05047E+01
 -1      3443 2.45000E+01 4.15560E+02 2.03573E+01
 -1      3445 2.45000E+01 4.16516E+02 2.06521E+01
 -1      3454 2.40000E+01 4.15992E+02 2.06536E+01
 -1      3456 2.50000E+01 4.15992E+02 2.06536E+01
 -1      3457 2.45000E+01 4.15514E+02 2.05062E+01
 -1      3459 2.45000E+01 4.16470E+02 2.08010E+01
 -1      3468 2.40000E+01 4.16152E+02 2.02147E+01
 -1      3470 2.50000E+01 4.16152E+02 2.02147E+01
 -1      3471 2.45000E+01 4.15701E+02 1.99978E+01
 -1      3473 2.45000E+01 4.16602E+02 2.04316E+01
 -1      3482 2.40000E+01-4.08091E+02 2.03583E+01
 -1      3484 2.50000E+01-4.08091E+02 2.03583E+01
 -1      3485 2.45000E+01-4.07627E+02 2.01718E+01
 -1      3487 2.45000E+01-4.08555E+02 2.05448E+01
 -1      3496 2.40000E+01-4.08152E+02 2.02147E+01
 -1      3498 2.50000E+01-4.08152E+02 2.02147E+01
 -1      3499 2.45000E+01-4.07691E+02 2.00205E+01
 -1      3501 2.45000E+01-4.08612E+02 2.04089E+01
 -1      3510 2.40000E+01 4.16219E+02 2.00743E+01
 -1      3512 2.50000E+01 4.16219E+02 2.00743E+01
 -1      3513 2.45000E+01 4.15774E+02 1.98462E+01
 -1      3515 2.45000E+01 4.16664E+02 2.03024E+01
 -1      3524 2.40000E+01 4.16463E+02 1.96758E+01
 -1      3526 2.50000E+01 4.16463E+02 1.96758E+01
 -1      3527 2.40000E+01-4.08463E+02 1.96758E+01
 -1      3529 2.50000E+01-4.08463E+02 1.96758E+01
 -1      3530 2.45000E+01-4.08064E+02 1.93740E+01
 -1      3532 2.45000E+01-4.08861E+02 1.99776E+01
 -1      3541 2.40000E+01-4.08557E+02 1.95516E+01
 -1      3543 2.50000E+01-4.08557E+02 1.95516E+01
 -1      3544 2.45000E+01-4.08166E+02 1.92399E+01
 -1      3546 2.45000E+01-4.08948E+02 1.98633E+01
 -1      3555 2.40000E+01 4.30500E+02 3.30000E+01
 -1      3557 2.50000E+01 4.30500E+02 3.30000E+01
 -1      3558 2.45000E+01 4.30000E+02 3.30000E+01
 -1      3560 2.45000E+01 4.31000E+02 3.30000E+01
 -1      3569 2.40000E+01 4.21009E+02 2.38939E+01
 -1      3571 2.50000E+01 4.21009E+02 2.38939E+01
 -1      3572 2.45000E+01 4.21330E+02 2.42769E+01
 -1      3574 2.45000E+01 4.20687E+02 2.35109E+01
 -1      3583 2.40000E+01 4.21126E+02 2.37908E+01
 -1      3585 2.50000E+01 4.21126E+02 2.37908E+01
 -1      3586 2.45000E+01 4.21469E+02 2.41545E+01
 -1      3588 2.45000E+01 4.20782E+02 2.34271E+01
 -1      3597 2.40000E+01 4.20760E+02 2.40820E+01
 -1      3599 2.50000E+01 4.20760E+02 2.40820E+01
 -1      3600 2.45000E+01 4.21052E+02 2.44880E+01
 -1      3602 2.45000E+01 4.20469E+02 2.36760E+01
 -1      3611 2.40000E+01 4.20887E+02 2.39910E+01
 -1      3613 2.50000E+01 4.20887E+02 2.39910E+01
 -1      3614 2.45000E+01 4.21199E+02 2.43819E+01
 -1      3616 2.45000E+01 4.20575E+02 2.36002E+01
 -1      3625 2.40000E+01 4.20214E+02 2.43796E+01
 -1      3627 2.50000E+01 4.20214E+02 2.43796E+01
 -1      3628 2.40000E+01 4.20356E+02 2.43155E+01
 -1      3630 2.50000E+01 4.20356E+02 2.43155E+01
 -1      3631 2.45000E+01 4.20584E+02 2.47605E+01
 -1      3633 2.45000E+01 4.20128E+02 2.38706E+01
 -1      3642 2.40000E+01 4.20069E+02 2.44365E+01
 -1      3644 2.50000E+01 4.20069E+02 2.44365E+01
 -1      3645 2.45000E+01 4.20251E+02 2.49020E+01
 -1      3647 2.45000E+01 4.19886E+02 2.39711E+01
 -1      3656 2.40000E+01 4.19771E+02 2.45284E+01
 -1      3658 2.50000E+01 4.19771E+02 2.45284E+01
 -1      3659 2.45000E+01 4.19907E+02 2.50097E+01
 -1      3661 2.45000E+01 4.19636E+02 2.40471E+01
 -1      3670 2.40000E+01 4.19921E+02 2.44862E+01
 -1      3672 2.50000E+01 4.19921E+02 2.44862E+01
 -1      3673 2.45000E+01 4.20057E+02 2.49675E+01
 -1      3675 2.45000E+01 4.19786E+02 2.40049E+01
 -1      3684 2.40000E+01 4.19156E+02 2.46211E+01
 -1      3686 2.50000E+01 4.19156E+02 2.46211E+01
 -1      3687 2.45000E+01 4.19193E+02 2.51197E+01
 -1      3689 2.45000E+01 4.19118E+02 2.41225E+01
 -1      3698 2.40000E+01 4.19311E+02 2.46095E+01
 -1      3700 2.50000E+01 4.19311E+02 2.46095E+01
 -1      3701 2.40000E+01 4.18079E+02 2.44862E+01
 -1      3703 2.50000E+01 4.18079E+02 2.44862E+01
 -1      3704 2.45000E+01 4.17943E+02 2.49675E+01
 -1      3706 2.45000E+01 4.18214E+02 2.40049E+01
 -1      3715 2.40000E+01 4.18229E+02 2.45284E+01
 -1      3717 2.50000E+01 4.18229E+02 2.45284E+01
 -1      3718 2.45000E+01 4.18093E+02 2.50097E+01
 -1      3720 2.45000E+01 4.18364E+02 2.40471E+01
 -1      3729 2.40000E+01 4.17931E+02 2.44365E+01
 -1      3731 2.50000E+01 4.17931E+02 2.44365E+01
 -1      3732 2.40000E+01 4.17240E+02 2.40820E+01
 -1      3734 2.50000E+01 4.17240E+02 2.40820E+01
 -1      3735 2.45000E+01 4.16968E+02 2.45020E+01
 -1      3737 2.45000E+01 4.17511E+02 2.36620E+01
 -1      3746 2.40000E+01 4.17371E+02 2.41665E+01
 -1      3748 2.50000E+01 4.17371E+02 2.41665E+01
 -1      3749 2.45000E+01 4.17099E+02 2.45865E+01
 -1      3751 2.45000E+01 4.17642E+02 2.37465E+01
 -1      3760 2.40000E+01 4.21237E+02 2.36820E+01
 -1      3762 2.50000E+01 4.21237E+02 2.36820E+01
 -1      3763 2.45000E+01 4.21586E+02 2.40399E+01
 -1      3765 2.45000E+01 4.20888E+02 2.33241E+01
 -1      3774 2.40000E+01 4.16874E+02 1.92092E+01
 -1      3776 2.50000E+01 4.16874E+02 1.92092E+01
 -1      3777 2.40000E+01 4.16763E+02 1.93180E+01
 -1      3779 2.50000E+01 4.16763E+02 1.93180E+01
 -1      3780 2.45000E+01 4.16396E+02 1.89779E+01
 -1      3782 2.45000E+01 4.17129E+02 1.96581E+01
 -1      3791 2.40000E+01-4.08763E+02 1.93180E+01
 -1      3793 2.50000E+01-4.08763E+02 1.93180E+01
 -1      3794 2.45000E+01-4.08414E+02 1.89601E+01
 -1      3796 2.45000E+01-4.09112E+02 1.96759E+01
 -1      3805 2.40000E+01 4.21537E+02 2.33242E+01
 -1      3807 2.50000E+01 4.21537E+02 2.33242E+01
 -1      3808 2.40000E+01 4.21443E+02 2.34484E+01
 -1      3810 2.50000E+01 4.21443E+02 2.34484E+01
 -1      3811 2.40000E+01 4.21625E+02 2.31955E+01
 -1      3813 2.50000E+01 4.21625E+02 2.31955E+01
 -1      3814 2.40000E+01 4.21781E+02 2.29257E+01
 -1      3816 2.50000E+01 4.21781E+02 2.29257E+01
 -1      3817 2.45000E+01 4.22220E+02 2.31648E+01
 -1      3819 2.45000E+01 4.21342E+02 2.26865E+01
 -1      3828 2.40000E+01 4.21706E+02 2.30625E+01
 -1      3830 2.50000E+01 4.21706E+02 2.30625E+01
 -1      3831 2.45000E+01 4.22145E+02 2.33016E+01
 -1      3833 2.45000E+01 4.21267E+02 2.28234E+01
 -1      3842 2.40000E+01 4.22047E+02 2.21954E+01
 -1      3844 2.50000E+01 4.22047E+02 2.21954E+01
 -1      3845 2.45000E+01 4.22534E+02 2.23066E+01
 -1      3847 2.45000E+01 4.21559E+02 2.20841E+01
 -1      3856 2.40000E+01 4.22008E+02 2.23464E+01
 -1      3858 2.50000E+01 4.22008E+02 2.23464E+01
 -1      3859 2.45000E+01 4.22493E+02 2.24698E+01
 -1      3861 2.45000E+01 4.21524E+02 2.22230E+01
 -1      3870 2.40000E+01 4.22101E+02 2.18886E+01
 -1      3872 2.50000E+01 4.22101E+02 2.18886E+01
 -1      3873 2.45000E+01 4.22595E+02 2.19631E+01
 -1      3875 2.45000E+01 4.21606E+02 2.18141E+01
 -1      3884 2.40000E+01 4.22078E+02 2.20427E+01
 -1      3886 2.50000E+01 4.22078E+02 2.20427E+01
 -1      3887 2.45000E+01 4.22570E+02 2.21294E+01
 -1      3889 2.45000E+01 4.21585E+02 2.19559E+01
 -1      3898 2.40000E+01 4.30500E+02 1.00000E+01
 -1      3900 2.50000E+01 4.30500E+02 1.00000E+01
 -1      3901 2.45000E+01 4.30500E+02 9.50000E+00
 -1      3903 2.45000E+01 4.30500E+02 1.05000E+01
 -1      3904 2.45000E+01 4.30000E+02 1.00000E+01
 -1      3906 2.45000E+01 4.31000E+02 1.00000E+01
 -1      3918 2.40000E+01 4.19311E+02 1.83905E+01
 -1      3920 2.50000E+01 4.19311E+02 1.83905E+01
 -1      3921 2.45000E+01 4.19349E+02 1.78919E+01
 -1      3923 2.45000E+01 4.19274E+02 1.88891E+01
 -1      3932 2.40000E+01 4.19156E+02 1.83789E+01
 -1      3934 2.50000E+01 4.19156E+02 1.83789E+01
 -1      3935 2.45000E+01 4.19193E+02 1.78803E+01
 -1      3937 2.45000E+01 4.19118E+02 1.88775E+01
 -1      3946 2.40000E+01 4.19466E+02 1.84099E+01
 -1      3948 2.50000E+01 4.19466E+02 1.84099E+01
 -1      3949 2.45000E+01 4.19553E+02 1.79175E+01
 -1      3951 2.45000E+01 4.19379E+02 1.89023E+01
 -1      3960 2.40000E+01 4.19771E+02 1.84716E+01
 -1      3962 2.50000E+01 4.19771E+02 1.84716E+01
 -1      3963 2.45000E+01 4.19899E+02 1.79881E+01
 -1      3965 2.45000E+01 4.19644E+02 1.89551E+01
 -1      3974 2.40000E+01 4.19619E+02 1.84370E+01
 -1      3976 2.50000E+01 4.19619E+02 1.84370E+01
 -1      3977 2.45000E+01 4.19718E+02 1.79469E+01
 -1      3979 2.45000E+01 4.19520E+02 1.89270E+01
 -1      3988 2.40000E+01 4.19921E+02 1.85138E+01
 -1      3990 2.50000E+01 4.19921E+02 1.85138E+01
 -1      3991 2.45000E+01 4.20057E+02 1.80325E+01
 -1      3993 2.45000E+01 4.19786E+02 1.89951E+01
 -1      4002 2.40000E+01 4.20495E+02 1.87556E+01
 -1      4004 2.50000E+01 4.20495E+02 1.87556E+01
 -1      4005 2.45000E+01 4.20745E+02 1.83225E+01
 -1      4007 2.45000E+01 4.20245E+02 1.91886E+01
 -1      4016 2.40000E+01 4.20356E+02 1.86845E+01
 -1      4018 2.50000E+01 4.20356E+02 1.86845E+01
 -1      4019 2.45000E+01 4.20562E+02 1.82287E+01
 -1      4021 2.45000E+01 4.20150E+02 1.91402E+01
 -1      4030 2.40000E+01 4.20629E+02 1.88335E+01
 -1      4032 2.50000E+01 4.20629E+02 1.88335E+01
 -1      4033 2.45000E+01 4.20879E+02 1.84004E+01
 -1      4035 2.45000E+01 4.20379E+02 1.92665E+01
 -1      4044 2.40000E+01 4.21009E+02 1.91061E+01
 -1      4046 2.50000E+01 4.21009E+02 1.91061E+01
 -1      4047 2.45000E+01 4.21330E+02 1.87231E+01
 -1      4049 2.45000E+01 4.20687E+02 1.94891E+01
 -1      4058 2.40000E+01 4.20887E+02 1.90090E+01
 -1      4060 2.50000E+01 4.20887E+02 1.90090E+01
 -1      4061 2.45000E+01 4.21199E+02 1.86181E+01
 -1      4063 2.45000E+01 4.20575E+02 1.93998E+01
 -1      4072 2.40000E+01 4.18229E+02 1.84716E+01
 -1      4074 2.50000E+01 4.18229E+02 1.84716E+01
 -1      4075 2.45000E+01 4.18093E+02 1.79903E+01
 -1      4077 2.45000E+01 4.18364E+02 1.89529E+01
 -1      4086 2.40000E+01 4.18079E+02 1.85138E+01
 -1      4088 2.50000E+01 4.18079E+02 1.85138E+01
 -1      4089 2.45000E+01 4.17928E+02 1.80373E+01
 -1      4091 2.45000E+01 4.18230E+02 1.89904E+01
 -1      4100 2.40000E+01 4.18844E+02 1.83789E+01
 -1      4102 2.50000E+01 4.18844E+02 1.83789E+01
 -1      4103 2.45000E+01 4.18832E+02 1.78790E+01
 -1      4105 2.45000E+01 4.18857E+02 1.88787E+01
 -1      4114 2.40000E+01 4.18689E+02 1.83905E+01
 -1      4116 2.50000E+01 4.18689E+02 1.83905E+01
 -1      4117 2.45000E+01 4.18627E+02 1.78944E+01
 -1      4119 2.45000E+01 4.18751E+02 1.88866E+01
 -1      4128 2.40000E+01 4.19000E+02 1.83750E+01
 -1      4130 2.50000E+01 4.19000E+02 1.83750E+01
 -1      4131 2.45000E+01 4.18988E+02 1.78752E+01
 -1      4133 2.45000E+01 4.19012E+02 1.88748E+01
 -1      4142 2.40000E+01-4.09113E+02 2.39910E+01
 -1      4144 2.50000E+01-4.09113E+02 2.39910E+01
 -1      4145 2.45000E+01-4.08821E+02 2.43970E+01
 -1      4147 2.45000E+01-4.09405E+02 2.35851E+01
 -1      4156 2.40000E+01-4.08991E+02 2.38939E+01
 -1      4158 2.50000E+01-4.08991E+02 2.38939E+01
 -1      4159 2.40000E+01-4.08874E+02 2.37908E+01
 -1      4161 2.50000E+01-4.08874E+02 2.37908E+01
 -1      4162 2.40000E+01 4.17113E+02 2.39910E+01
 -1      4164 2.50000E+01 4.17113E+02 2.39910E+01
 -1      4165 2.40000E+01 4.16991E+02 2.38939E+01
 -1      4167 2.50000E+01 4.16991E+02 2.38939E+01
 -1      4168 2.40000E+01 4.17240E+02 1.89180E+01
 -1      4170 2.50000E+01 4.17240E+02 1.89180E+01
 -1      4171 2.45000E+01 4.16968E+02 1.84980E+01
 -1      4173 2.45000E+01 4.17511E+02 1.93380E+01
 -1      4182 2.40000E+01 4.17113E+02 1.90090E+01
 -1      4184 2.50000E+01 4.17113E+02 1.90090E+01
 -1      4185 2.45000E+01 4.16801E+02 1.86181E+01
 -1      4187 2.45000E+01 4.17425E+02 1.93998E+01
 -1      4196 2.40000E+01 4.16991E+02 1.91061E+01
 -1      4198 2.50000E+01 4.16991E+02 1.91061E+01
 -1      4199 2.45000E+01 4.16670E+02 1.87231E+01
 -1      4201 2.45000E+01 4.17313E+02 1.94891E+01
 -1      4210 3.44939E+01 4.30500E+02 9.50004E+00
 -1      4212 3.45061E+01 4.30500E+02 1.05000E+01
 -1      4213 2.45000E+01-4.22500E+02 7.50000E+00
 -1      4215 2.45000E+01-4.22500E+02 6.50000E+00
 -1      4216 2.45000E+01-4.22000E+02 7.00000E+00
 -1      4218 2.45000E+01-4.23000E+02 7.00000E+00
 -1      4227 3.45000E+01 4.30500E+02 7.50000E+00
 -1      4229 3.45000E+01 4.30500E+02 6.50000E+00
 -1      4230 3.50000E+01 4.30500E+02 7.00000E+00
 -1      4232 3.40000E+01 4.30500E+02 7.00000E+00
 -1      4233 3.45000E+01 4.30000E+02 7.00000E+00
 -1      4235 3.45000E+01 4.31000E+02 7.00000E+00
 -1      4236 3.45000E+01 4.31000E+02 7.00000E+00
 -1      4238 3.45000E+01 4.30000E+02 7.00000E+00
 -1      4253 3.45000E+01-4.22500E+02 7.50000E+00
 -1      4255 3.45000E+01-4.22500E+02 6.50000E+00
 -1      4256 3.50000E+01-4.22500E+02 7.00000E+00
 -1      4258 3.40000E+01-4.22500E+02 7.00000E+00
 -1      4259 3.45000E+01-4.23000E+02 7.00000E+00
 -1      4261 3.45000E+01-4.22000E+02 7.00000E+00
 -1      4262 3.45000E+01-4.22000E+02 7.00000E+00
 -1      4264 3.45000E+01-4.23000E+02 7.00000E+00
 -1      4279 3.50000E+01-4.70000E+02 3.40000E+01
 -1      4281 3.40000E+01-4.70000E+02 3.40000E+01
 -1      4282 3.45000E+01-4.69500E+02 3.40000E+01
 -1      4284 3.45000E+01-4.70500E+02 3.40000E+01
 -1      4285 3.45000E+01-4.70000E+02 3.35000E+01
 -1      4287 3.45000E+01-4.70000E+02 3.45000E+01
 -1      4299 3.50000E+01-4.44632E+02 2.77485E+01
 -1      4301 3.40000E+01-4.44632E+02 2.77485E+01
 -1      4302 3.45000E+01-4.44972E+02 2.81150E+01
 -1      4304 3.45000E+01-4.44292E+02 2.73819E+01
 -1      4313 3.50000E+01-4.44888E+02 2.75111E+01
 -1      4315 3.40000E+01-4.44888E+02 2.75111E+01
 -1      4316 3.45000E+01-4.45246E+02 2.78602E+01
 -1      4318 3.45000E+01-4.44530E+02 2.71619E+01
 -1      4327 3.50000E+01-4.44086E+02 2.81836E+01
 -1      4329 3.40000E+01-4.44086E+02 2.81836E+01
 -1      4330 3.50000E+01-4.44364E+02 2.79728E+01
 -1      4332 3.40000E+01-4.44364E+02 2.79728E+01
 -1      4333 3.50000E+01-4.45580E+02 2.67266E+01
 -1      4335 3.40000E+01-4.45580E+02 2.67266E+01
 -1      4336 3.45000E+01-4.45978E+02 2.70285E+01
 -1      4338 3.45000E+01-4.45181E+02 2.64247E+01
 -1      4347 3.50000E+01-4.45784E+02 2.64432E+01
 -1      4349 3.40000E+01-4.45784E+02 2.64432E+01
 -1      4350 3.50000E+01-4.43500E+02 2.85622E+01
 -1      4352 3.40000E+01-4.43500E+02 2.85622E+01
 -1      4353 3.45000E+01-4.43754E+02 2.89931E+01
 -1      4355 3.45000E+01-4.43246E+02 2.81313E+01
 -1      4364 3.50000E+01-4.43798E+02 2.83802E+01
 -1      4366 3.40000E+01-4.43798E+02 2.83802E+01
 -1      4367 3.45000E+01-4.44069E+02 2.88002E+01
 -1      4369 3.45000E+01-4.43527E+02 2.79602E+01
 -1      4378 3.50000E+01-4.42879E+02 2.88805E+01
 -1      4380 3.40000E+01-4.42879E+02 2.88805E+01
 -1      4381 3.45000E+01-4.43073E+02 2.93413E+01
 -1      4383 3.45000E+01-4.42685E+02 2.84198E+01
 -1      4392 3.50000E+01-4.43193E+02 2.87291E+01
 -1      4394 3.40000E+01-4.43193E+02 2.87291E+01
 -1      4395 3.45000E+01-4.43433E+02 2.91682E+01
 -1      4397 3.45000E+01-4.42954E+02 2.82900E+01
 -1      4406 3.50000E+01-4.46689E+02 2.45633E+01
 -1      4408 3.40000E+01-4.46689E+02 2.45633E+01
 -1      4409 3.50000E+01-4.46784E+02 2.42273E+01
 -1      4411 3.40000E+01-4.46784E+02 2.42273E+01
 -1      4412 3.45000E+01-4.47271E+02 2.43386E+01
 -1      4414 3.45000E+01-4.46296E+02 2.41160E+01
 -1      4423 3.50000E+01-4.41558E+02 2.93245E+01
 -1      4425 3.40000E+01-4.41558E+02 2.93245E+01